********************************************************************************
*                       GENERAL UTILITY LATTICE PROGRAM                        *
*                                 Julian Gale                                  *
*                      Nanochemistry Research Institute                        *
*                           Department of Chemistry                            *
*                    Curtin University, Western Australia                      *
********************************************************************************
* Version = 4.3.3 * Last modified =  5th August 2015                           *
********************************************************************************
*  optimise     - perform optimisation run                                     *
*  conp         - constant pressure calculation                                *
*  qok          - running with non charge neutral cell is OK                   *
*  nosymmetry   - turn off symmetry after initial structure generation         *
*  conjugate    - use conjugate gradients minimiser                            *
********************************************************************************

  Job Started  at 20:35.33 29th August     2019                               

  Number of CPUs =     1


  Total number of configurations input =   1

********************************************************************************
*  Input for Configuration =   1                                               *
********************************************************************************

  Formula = Mg4Si4O12                                                   

  Number of irreducible atoms/shells =      32


  Total number atoms/shells =      32

  Dimensionality = 3               :  Bulk   


  Charge on solid   =  24.000000 =>neutralising background added


  Cartesian lattice vectors (Angstroms) :

        4.444900    0.000000    0.000000
        0.000000    4.664800    0.000000
        0.000000    0.000000    6.454400

  Cell parameters (Angstroms/Degrees):

  a =       4.4449    alpha =  90.0000
  b =       4.6648    beta  =  90.0000
  c =       6.4544    gamma =  90.0000

  Initial cell volume =         133.829206 Angs**3

  Temperature of configuration =  0.000     K 

  Pressure of configuration =         0.000 GPa 

  Fractional coordinates of asymmetric unit :

--------------------------------------------------------------------------------
   No.  Atomic       x           y          z         Charge      Occupancy
        Label      (Frac)      (Frac)     (Frac)        (e)         (Frac)  
--------------------------------------------------------------------------------
      1 Mg    c    0.981800    0.081700    0.250000     2.00000    1.000000    
      2 Mg    c    0.518200 *  0.581700 *  0.250000 *   2.00000    1.000000    
      3 Mg    c    0.018200 *  0.918300 *  0.750000 *   2.00000    1.000000    
      4 Mg    c    0.481800 *  0.418300 *  0.750000 *   2.00000    1.000000    
      5 Si    c    0.000000 *  0.500000 *  0.500000 *   4.00000    1.000000    
      6 Si    c    0.500000 *  0.000000 *  0.000000 *   4.00000    1.000000    
      7 Si    c    0.000000 *  0.500000 *  0.000000 *   4.00000    1.000000    
      8 Si    c    0.500000 *  0.000000 *  0.500000 *   4.00000    1.000000    
      9 O     c    0.393100 *  0.975500 *  0.250000 *   0.00000    1.000000    
     10 O     c    0.106900 *  0.475500 *  0.250000 *   0.00000    1.000000    
     11 O     c    0.606900 *  0.024500 *  0.750000 *   0.00000    1.000000    
     12 O     c    0.893100 *  0.524500 *  0.750000 *   0.00000    1.000000    
     13 O     c    0.311700 *  0.693900 *  0.562100 *   0.00000    1.000000    
     14 O     c    0.188300 *  0.193900 *  0.937900 *   0.00000    1.000000    
     15 O     c    0.688300 *  0.306100 *  0.062100 *   0.00000    1.000000    
     16 O     c    0.811700 *  0.806100 *  0.437900 *   0.00000    1.000000    
     17 O     c    0.688300 *  0.306100 *  0.437900 *   0.00000    1.000000    
     18 O     c    0.811700 *  0.806100 *  0.062100 *   0.00000    1.000000    
     19 O     c    0.311700 *  0.693900 *  0.937900 *   0.00000    1.000000    
     20 O     c    0.188300 *  0.193900 *  0.562100 *   0.00000    1.000000    
     21 O     s    0.393100 *  0.975500 *  0.250000 *   0.00000    1.000000    
     22 O     s    0.106900 *  0.475500 *  0.250000 *   0.00000    1.000000    
     23 O     s    0.606900 *  0.024500 *  0.750000 *   0.00000    1.000000    
     24 O     s    0.893100 *  0.524500 *  0.750000 *   0.00000    1.000000    
     25 O     s    0.311700 *  0.693900 *  0.562100 *   0.00000    1.000000    
     26 O     s    0.188300 *  0.193900 *  0.937900 *   0.00000    1.000000    
     27 O     s    0.688300 *  0.306100 *  0.062100 *   0.00000    1.000000    
     28 O     s    0.811700 *  0.806100 *  0.437900 *   0.00000    1.000000    
     29 O     s    0.688300 *  0.306100 *  0.437900 *   0.00000    1.000000    
     30 O     s    0.811700 *  0.806100 *  0.062100 *   0.00000    1.000000    
     31 O     s    0.311700 *  0.693900 *  0.937900 *   0.00000    1.000000    
     32 O     s    0.188300 *  0.193900 *  0.562100 *   0.00000    1.000000    
--------------------------------------------------------------------------------



********************************************************************************
*  General input information                                                   *
********************************************************************************

  Species output for all configurations : 

--------------------------------------------------------------------------------
  Species    Type    Atomic    Atomic    Charge       Radii (Angs)     Library
                     Number     Mass       (e)     Cova   Ionic  VDW   Symbol
--------------------------------------------------------------------------------
    Mg       Core       12      24.31   2.000000   1.100  0.000  1.640          
    Si       Core       14      28.09   4.000000   1.200  0.000  2.100          
    O        Core        8      16.00   0.000000   0.730  0.000  1.360          
    O        Shell       8       0.00   0.000000   0.730  0.000  1.360          
--------------------------------------------------------------------------------


  Lattice summation method               =    Ewald          (3-D)
                                         =    Parry          (2-D)
                                         =    Saunders et al (1-D)
  Accuracy factor for lattice sums       =   12.000


  Time limit = Infinity

  General Three-body potentials :

  Harmonic form:

--------------------------------------------------------------------------------
Atom    Atom    Atom           Force Constants            Theta     Cutoffs  
  1       2       3     (eVrad**-2/eVrad**-3/eVrad**-4)   (deg)  1-2  1-3  2-3
--------------------------------------------------------------------------------
Si    c O     s O     s  2.097        0.0000    0.0000   109.470 0.00 0.00 0.00
                                                                 2.00 2.00 2.40
--------------------------------------------------------------------------------

********************************************************************************
*  Output for configuration   1                                                *
********************************************************************************


  Components of energy : 

--------------------------------------------------------------------------------
  Interatomic potentials     =           0.00000000 eV
  Three-body potentials      =           3.33210929 eV
  Monopole - monopole (real) =         136.51373849 eV
  Monopole - monopole (recip)=        -299.50492178 eV
  Monopole - monopole (total)=        -162.99118329 eV
  Neutralising energy        =        -455.02898699 eV
--------------------------------------------------------------------------------
  Total lattice energy       =        -614.68806098 eV
--------------------------------------------------------------------------------
  Total lattice energy       =          -59308.0015 kJ/(mole unit cells)
--------------------------------------------------------------------------------


  Number of variables =       99

  Maximum number of calculations  =           500
  Maximum Hessian update interval =            10
  Maximum step size               =   1.000000000
  Maximum parameter tolerance     =   0.000010000
  Maximum function  tolerance     =   0.000010000
  Maximum gradient  tolerance     =   0.001000000
  Maximum gradient  component     =   0.010000000

  Cell parameters to be optimised using strains

  Conjugate gradient optimiser to be used

  Minimiser to switch to BFGS with exact hessian
  When gradient norm is less than     0.500000

  Dumpfile to be written after every cycle

  Start of bulk optimisation :

  Cycle:      0 Energy:      -614.688061  Gnorm:      3.633761  CPU:    0.006
  Cycle:      1 Energy:      -908.418796  Gnorm:      5.457095  CPU:    0.015
  Cycle:      2 Energy:      -957.744751  Gnorm:      6.128182  CPU:    0.023
  Cycle:      3 Energy:      -958.556564  Gnorm:      6.132370  CPU:    0.029
  Cycle:      4 Energy:      -958.930427  Gnorm:      6.134277  CPU:    0.034
  Cycle:      5 Energy:      -958.930427  Gnorm:      6.134277  CPU:    0.038
  Cycle:      6 Energy:      -958.930427  Gnorm:      6.134277  CPU:    0.042
  Cycle:      7 Energy:      -958.930427  Gnorm:      6.134277  CPU:    0.046
  Cycle:      8 Energy:      -958.930427  Gnorm:      6.134277  CPU:    0.049
  Cycle:      9 Energy:      -958.930427  Gnorm:      6.134277  CPU:    0.054
  Cycle:     10 Energy:      -958.930427  Gnorm:      6.134277  CPU:    0.057
  Cycle:     11 Energy:      -958.930427  Gnorm:      6.134277  CPU:    0.061
  Cycle:     12 Energy:      -958.930427  Gnorm:      6.134277  CPU:    0.066
  Cycle:     13 Energy:      -958.930427  Gnorm:      6.134277  CPU:    0.070
  Cycle:     14 Energy:      -958.930427  Gnorm:      6.134277  CPU:    0.074
  Cycle:     15 Energy:      -958.930427  Gnorm:      6.134277  CPU:    0.078


  **** Too many failed attempts to optimise ****

  Final energy =    -958.93042712 eV
  Final Gnorm  =       6.13427701

  Components of energy : 

--------------------------------------------------------------------------------
  Interatomic potentials     =           0.00000000 eV
  Three-body potentials      =          75.19603659 eV
  Monopole - monopole (real) =         224.55489575 eV
  Monopole - monopole (recip)=        -499.73941430 eV
  Monopole - monopole (total)=        -275.18451855 eV
  Neutralising energy        =        -758.94194516 eV
--------------------------------------------------------------------------------
  Total lattice energy       =        -958.93042712 eV
--------------------------------------------------------------------------------
  Total lattice energy       =          -92522.1276 kJ/(mole unit cells)
--------------------------------------------------------------------------------

  Final fractional coordinates of atoms :

--------------------------------------------------------------------------------
   No.  Atomic        x           y          z          Radius
        Label       (Frac)      (Frac)     (Frac)       (Angs) 
--------------------------------------------------------------------------------
     1  Mg    c     0.981800    0.081700    0.250000    0.000000
     2  Mg    c     0.504869    0.543180    0.250000    0.000000
     3  Mg    c     0.005161    0.957612    0.750000    0.000000
     4  Mg    c     0.494856    0.457937    0.750000    0.000000
     5  Si    c     0.000281    0.502137    0.501057    0.000000
     6  Si    c     0.499368    0.998937    0.000383    0.000000
     7  Si    c     0.000281    0.502137    0.998943    0.000000
     8  Si    c     0.499368    0.998937    0.499617    0.000000
     9  O     c     0.393100    0.975500    0.250000    0.000000
    10  O     c     0.106900    0.475500    0.250000    0.000000
    11  O     c     0.606900    0.024500    0.750000    0.000000
    12  O     c     0.893100    0.524500    0.750000    0.000000
    13  O     c     0.311700    0.693900    0.562100    0.000000
    14  O     c     0.188300    0.193900    0.937900    0.000000
    15  O     c     0.688300    0.306100    0.062100    0.000000
    16  O     c     0.811700    0.806100    0.437900    0.000000
    17  O     c     0.688300    0.306100    0.437900    0.000000
    18  O     c     0.811700    0.806100    0.062100    0.000000
    19  O     c     0.311700    0.693900    0.937900    0.000000
    20  O     c     0.188300    0.193900    0.562100    0.000000
    21  O     s     0.383864    0.973272    0.250000    0.000000
    22  O     s     0.116136    0.473224    0.250000    0.000000
    23  O     s     0.616152    0.026776    0.750000    0.000000
    24  O     s     0.883848    0.526728    0.750000    0.000000
    25  O     s     0.312812    0.694413    0.550378    0.000000
    26  O     s     0.187198    0.194422    0.949638    0.000000
    27  O     s     0.687204    0.305576    0.050362    0.000000
    28  O     s     0.812806    0.805586    0.449622    0.000000
    29  O     s     0.687204    0.305576    0.449638    0.000000
    30  O     s     0.812806    0.805586    0.050378    0.000000
    31  O     s     0.312812    0.694413    0.949622    0.000000
    32  O     s     0.187198    0.194422    0.550362    0.000000
--------------------------------------------------------------------------------

  Final Cartesian lattice vectors (Angstroms) :

        2.628968    0.000389    0.000000
        0.000409    2.827450    0.000000
        0.000000    0.000000    3.880272


  Final cell parameters and derivatives :

--------------------------------------------------------------------------------
       a            2.628968 Angstrom     dE/de1(xx)   362.517732 eV/strain
       b            2.827450 Angstrom     dE/de2(yy)   341.531802 eV/strain
       c            3.880272 Angstrom     dE/de3(zz)   330.076930 eV/strain
       alpha       90.000000 Degrees      dE/de4(yz)     0.000000 eV/strain
       beta        90.000000 Degrees      dE/de5(xz)    -0.000000 eV/strain
       gamma       89.983235 Degrees      dE/de6(xy)    -1.400920 eV/strain
--------------------------------------------------------------------------------

  Primitive cell volume =            28.843132 Angs**3

  Density of cell =     23.121036 g/cm**3

  Non-primitive cell volume =            28.843132 Angs**3


  Final internal derivatives :

--------------------------------------------------------------------------------
   No.  Atomic          a             b             c           Radius
        Label          (eV)          (eV)          (eV)        (eV/Angs)
--------------------------------------------------------------------------------
      1 Mg    c       0.000000      0.000000      0.000000      0.000000
      2 Mg    c       5.025344     11.450024      0.000000      0.000000
      3 Mg    c       3.782852    -18.248087     -0.000000      0.000000
      4 Mg    c      -3.853864    -15.821338     -0.000000      0.000000
      5 Si    c      -3.931897    -40.664241    -29.187639      0.000000
      6 Si    c      17.256620     30.321061    -25.880481      0.000000
      7 Si    c      -3.931897    -40.664241     29.187639      0.000000
      8 Si    c      17.256620     30.321061     25.880481      0.000000
      9 O     c       0.000000      0.000000      0.000000      0.000000
     10 O     c       0.000000      0.000000      0.000000      0.000000
     11 O     c       0.000000      0.000000      0.000000      0.000000
     12 O     c       0.000000      0.000000      0.000000      0.000000
     13 O     c       0.000000      0.000000      0.000000      0.000000
     14 O     c       0.000000      0.000000      0.000000      0.000000
     15 O     c       0.000000      0.000000      0.000000      0.000000
     16 O     c       0.000000      0.000000      0.000000      0.000000
     17 O     c       0.000000      0.000000      0.000000      0.000000
     18 O     c       0.000000      0.000000      0.000000      0.000000
     19 O     c       0.000000      0.000000      0.000000      0.000000
     20 O     c       0.000000      0.000000      0.000000      0.000000
     21 O     s     -13.081528     -8.152826      0.000000      0.000000
     22 O     s      12.951455     18.134067     -0.000000      0.000000
     23 O     s       4.407276    -18.103153     -0.000000      0.000000
     24 O     s      -4.512431      8.224954     -0.000000      0.000000
     25 O     s      -3.431092      1.056521    -13.746678      0.000000
     26 O     s      -1.802530     -4.332498      5.350927      0.000000
     27 O     s      -4.991914      5.183698     -5.216094      0.000000
     28 O     s      -0.219353     -0.088785     13.644690      0.000000
     29 O     s      -4.991914      5.183698      5.216094      0.000000
     30 O     s      -0.219353     -0.088785    -13.644690      0.000000
     31 O     s      -3.431092      1.056521     13.746678      0.000000
     32 O     s      -1.802530     -4.332498     -5.350927      0.000000
--------------------------------------------------------------------------------
  Maximum abs        17.256620     40.664241     29.187639      0.000000
--------------------------------------------------------------------------------


  Time to end of optimisation =       0.0840 seconds


  Peak dynamic memory used =       0.59 MB 


  Timing analysis for GULP :

--------------------------------------------------------------------------------
  Task / Subroutine                                          Time (Seconds)
--------------------------------------------------------------------------------
  Calculation of reciprocal space energy and derivatives          0.0229
  Calculation of real space energy and derivatives                0.0220
  Calculation of three-body energy and derivatives                0.0193
  Global summation overhead                                       0.0004
--------------------------------------------------------------------------------
  Total CPU time                                                  0.0841
--------------------------------------------------------------------------------


  Dump file written as gulpopt                                                 


  Job Finished at 20:35.33 29th August     2019                               

