********************************************************************************
*                       GENERAL UTILITY LATTICE PROGRAM                        *
*                                 Julian Gale                                  *
*                      Nanochemistry Research Institute                        *
*                           Department of Chemistry                            *
*                    Curtin University, Western Australia                      *
********************************************************************************
* Version = 4.3.3 * Last modified =  5th August 2015                           *
********************************************************************************
*  optimise     - perform optimisation run                                     *
*  conp         - constant pressure calculation                                *
*  qok          - running with non charge neutral cell is OK                   *
*  nosymmetry   - turn off symmetry after initial structure generation         *
*  conjugate    - use conjugate gradients minimiser                            *
********************************************************************************

  Job Started  at 20:45.21 29th August     2019                               

  Number of CPUs =     1


  Total number of configurations input =   1

********************************************************************************
*  Input for Configuration =   1                                               *
********************************************************************************

  Formula = Mg4Si4O12                                                   

  Number of irreducible atoms/shells =      32


  Total number atoms/shells =      32

  Dimensionality = 3               :  Bulk   


  Charge on solid   =  24.000000 =>neutralising background added


  Cartesian lattice vectors (Angstroms) :

        2.774994    0.000000    0.000000
        0.000234    2.976494    0.000000
        0.000000    0.000000    4.109105

  Cell parameters (Angstroms/Degrees):

  a =       2.7750    alpha =  90.0000
  b =       2.9765    beta  =  90.0000
  c =       4.1091    gamma =  89.9955

  Initial cell volume =          33.940192 Angs**3

  Temperature of configuration =  0.000     K 

  Pressure of configuration =         0.000 GPa 

  Fractional coordinates of asymmetric unit :

--------------------------------------------------------------------------------
   No.  Atomic       x           y          z         Charge      Occupancy
        Label      (Frac)      (Frac)     (Frac)        (e)         (Frac)  
--------------------------------------------------------------------------------
      1 Mg    c    0.981800    0.081700    0.250000     2.00000    1.000000    
      2 Mg    c    0.505676 *  0.545056 *  0.250000 *   2.00000    1.000000    
      3 Mg    c    0.005778 *  0.954635 *  0.750000 *   2.00000    1.000000    
      4 Mg    c    0.494229 *  0.455410 *  0.750000 *   2.00000    1.000000    
      5 Si    c    0.999773 *  0.495429 *  0.496397 *   4.00000    1.000000    
      6 Si    c    0.502292 *  0.003986 *  0.996162 *   4.00000    1.000000    
      7 Si    c    0.999773 *  0.495429 *  0.003603 *   4.00000    1.000000    
      8 Si    c    0.502292 *  0.003986 *  0.503838 *   4.00000    1.000000    
      9 O     c    0.393100 *  0.975500 *  0.250000 *   0.00000    1.000000    
     10 O     c    0.106900 *  0.475500 *  0.250000 *   0.00000    1.000000    
     11 O     c    0.606900 *  0.024500 *  0.750000 *   0.00000    1.000000    
     12 O     c    0.893100 *  0.524500 *  0.750000 *   0.00000    1.000000    
     13 O     c    0.311700 *  0.693900 *  0.562100 *   0.00000    1.000000    
     14 O     c    0.188300 *  0.193900 *  0.937900 *   0.00000    1.000000    
     15 O     c    0.688300 *  0.306100 *  0.062100 *   0.00000    1.000000    
     16 O     c    0.811700 *  0.806100 *  0.437900 *   0.00000    1.000000    
     17 O     c    0.688300 *  0.306100 *  0.437900 *   0.00000    1.000000    
     18 O     c    0.811700 *  0.806100 *  0.062100 *   0.00000    1.000000    
     19 O     c    0.311700 *  0.693900 *  0.937900 *   0.00000    1.000000    
     20 O     c    0.188300 *  0.193900 *  0.562100 *   0.00000    1.000000    
     21 O     s    0.393100 *  0.975500 *  0.250000 *   0.00000    1.000000    
     22 O     s    0.106900 *  0.475500 *  0.250000 *   0.00000    1.000000    
     23 O     s    0.606900 *  0.024500 *  0.750000 *   0.00000    1.000000    
     24 O     s    0.893100 *  0.524500 *  0.750000 *   0.00000    1.000000    
     25 O     s    0.311700 *  0.693900 *  0.562100 *   0.00000    1.000000    
     26 O     s    0.188300 *  0.193900 *  0.937900 *   0.00000    1.000000    
     27 O     s    0.688300 *  0.306100 *  0.062100 *   0.00000    1.000000    
     28 O     s    0.811700 *  0.806100 *  0.437900 *   0.00000    1.000000    
     29 O     s    0.688300 *  0.306100 *  0.437900 *   0.00000    1.000000    
     30 O     s    0.811700 *  0.806100 *  0.062100 *   0.00000    1.000000    
     31 O     s    0.311700 *  0.693900 *  0.937900 *   0.00000    1.000000    
     32 O     s    0.188300 *  0.193900 *  0.562100 *   0.00000    1.000000    
--------------------------------------------------------------------------------



********************************************************************************
*  General input information                                                   *
********************************************************************************

  Species output for all configurations : 

--------------------------------------------------------------------------------
  Species    Type    Atomic    Atomic    Charge       Radii (Angs)     Library
                     Number     Mass       (e)     Cova   Ionic  VDW   Symbol
--------------------------------------------------------------------------------
    Mg       Core       12      24.31   2.000000   1.100  0.000  1.640          
    Si       Core       14      28.09   4.000000   1.200  0.000  2.100          
    O        Shell       8       0.00   0.000000   0.730  0.000  1.360          
    O        Core        8      16.00   0.000000   0.730  0.000  1.360          
--------------------------------------------------------------------------------


  Lattice summation method               =    Ewald          (3-D)
                                         =    Parry          (2-D)
                                         =    Saunders et al (1-D)
  Accuracy factor for lattice sums       =   12.000


  Time limit = Infinity

  General Three-body potentials :

  Harmonic form:

--------------------------------------------------------------------------------
Atom    Atom    Atom           Force Constants            Theta     Cutoffs  
  1       2       3     (eVrad**-2/eVrad**-3/eVrad**-4)   (deg)  1-2  1-3  2-3
--------------------------------------------------------------------------------
Si    c O     s O     s  2.097        0.0000    0.0000   109.470 0.00 0.00 0.00
                                                                 2.00 2.00 2.40
--------------------------------------------------------------------------------

********************************************************************************
*  Output for configuration   1                                                *
********************************************************************************


  Components of energy : 

--------------------------------------------------------------------------------
  Interatomic potentials     =           0.00000000 eV
  Three-body potentials      =          24.01355462 eV
  Monopole - monopole (real) =         213.21771215 eV
  Monopole - monopole (recip)=        -473.22604064 eV
  Monopole - monopole (total)=        -260.00832849 eV
  Neutralising energy        =        -718.87149640 eV
--------------------------------------------------------------------------------
  Total lattice energy       =        -954.86627028 eV
--------------------------------------------------------------------------------
  Total lattice energy       =          -92129.9986 kJ/(mole unit cells)
--------------------------------------------------------------------------------


  Number of variables =       99

  Maximum number of calculations  =           500
  Maximum Hessian update interval =            10
  Maximum step size               =   1.000000000
  Maximum parameter tolerance     =   0.000010000
  Maximum function  tolerance     =   0.000010000
  Maximum gradient  tolerance     =   0.001000000
  Maximum gradient  component     =   0.010000000

  Cell parameters to be optimised using strains

  Conjugate gradient optimiser to be used

  Minimiser to switch to BFGS with exact hessian
  When gradient norm is less than     0.500000

  Dumpfile to be written after every cycle

  Start of bulk optimisation :

  Cycle:      0 Energy:      -954.866270  Gnorm:      5.731394  CPU:    0.007
  Cycle:      1 Energy:      -954.970563  Gnorm:      5.731987  CPU:    0.012
  Cycle:      2 Energy:      -954.970563  Gnorm:      5.731987  CPU:    0.015
  Cycle:      3 Energy:      -954.970563  Gnorm:      5.731987  CPU:    0.019
  Cycle:      4 Energy:      -954.970563  Gnorm:      5.731987  CPU:    0.022
  Cycle:      5 Energy:      -954.970563  Gnorm:      5.731987  CPU:    0.025
  Cycle:      6 Energy:      -954.970563  Gnorm:      5.731987  CPU:    0.028
  Cycle:      7 Energy:      -954.970563  Gnorm:      5.731987  CPU:    0.031
  Cycle:      8 Energy:      -954.970563  Gnorm:      5.731987  CPU:    0.034
  Cycle:      9 Energy:      -954.970563  Gnorm:      5.731987  CPU:    0.037
  Cycle:     10 Energy:      -954.970563  Gnorm:      5.731987  CPU:    0.039
  Cycle:     11 Energy:      -954.970563  Gnorm:      5.731987  CPU:    0.043
  Cycle:     12 Energy:      -954.970563  Gnorm:      5.731987  CPU:    0.046


  **** Too many failed attempts to optimise ****

  Final energy =    -954.97056298 eV
  Final Gnorm  =       5.73198656

  Components of energy : 

--------------------------------------------------------------------------------
  Interatomic potentials     =           0.00000000 eV
  Three-body potentials      =          24.01270047 eV
  Monopole - monopole (real) =         213.24025016 eV
  Monopole - monopole (recip)=        -473.27603305 eV
  Monopole - monopole (total)=        -260.03578289 eV
  Neutralising energy        =        -718.94748056 eV
--------------------------------------------------------------------------------
  Total lattice energy       =        -954.97056298 eV
--------------------------------------------------------------------------------
  Total lattice energy       =          -92140.0613 kJ/(mole unit cells)
--------------------------------------------------------------------------------

  Final fractional coordinates of atoms :

--------------------------------------------------------------------------------
   No.  Atomic        x           y          z          Radius
        Label       (Frac)      (Frac)     (Frac)       (Angs) 
--------------------------------------------------------------------------------
     1  Mg    c     0.981800    0.081700    0.250000    0.000000
     2  Mg    c     0.505674    0.545055    0.250000    0.000000
     3  Mg    c     0.005777    0.954638    0.750000    0.000000
     4  Mg    c     0.494230    0.455418    0.750000    0.000000
     5  Si    c     0.999774    0.495430    0.496393    0.000000
     6  Si    c     0.502293    0.003988    0.996157    0.000000
     7  Si    c     0.999774    0.495430    0.003607    0.000000
     8  Si    c     0.502293    0.003988    0.503843    0.000000
     9  O     c     0.393100    0.975500    0.250000    0.000000
    10  O     c     0.106900    0.475500    0.250000    0.000000
    11  O     c     0.606900    0.024500    0.750000    0.000000
    12  O     c     0.893100    0.524500    0.750000    0.000000
    13  O     c     0.311700    0.693900    0.562100    0.000000
    14  O     c     0.188300    0.193900    0.937900    0.000000
    15  O     c     0.688300    0.306100    0.062100    0.000000
    16  O     c     0.811700    0.806100    0.437900    0.000000
    17  O     c     0.688300    0.306100    0.437900    0.000000
    18  O     c     0.811700    0.806100    0.062100    0.000000
    19  O     c     0.311700    0.693900    0.937900    0.000000
    20  O     c     0.188300    0.193900    0.562100    0.000000
    21  O     s     0.393099    0.975496    0.250000    0.000000
    22  O     s     0.106902    0.475504    0.250000    0.000000
    23  O     s     0.606900    0.024496    0.750000    0.000000
    24  O     s     0.893101    0.524504    0.750000    0.000000
    25  O     s     0.311699    0.693901    0.562099    0.000000
    26  O     s     0.188299    0.193900    0.937900    0.000000
    27  O     s     0.688299    0.306101    0.062100    0.000000
    28  O     s     0.811699    0.806100    0.437901    0.000000
    29  O     s     0.688299    0.306101    0.437900    0.000000
    30  O     s     0.811699    0.806100    0.062099    0.000000
    31  O     s     0.311699    0.693901    0.937901    0.000000
    32  O     s     0.188299    0.193900    0.562100    0.000000
--------------------------------------------------------------------------------

  Final Cartesian lattice vectors (Angstroms) :

        2.774705    0.000001    0.000000
        0.000235    2.976172    0.000000
        0.000000    0.000000    4.108676


  Final cell parameters and derivatives :

--------------------------------------------------------------------------------
       a            2.774705 Angstrom     dE/de1(xx)   321.896512 eV/strain
       b            2.976172 Angstrom     dE/de2(yy)   334.421617 eV/strain
       c            4.108676 Angstrom     dE/de3(zz)   322.665134 eV/strain
       alpha       90.000000 Degrees      dE/de4(yz)    -0.000000 eV/strain
       beta        90.000000 Degrees      dE/de5(xz)     0.000000 eV/strain
       gamma       89.995469 Degrees      dE/de6(xy)    -1.447507 eV/strain
--------------------------------------------------------------------------------

  Primitive cell volume =            33.929432 Angs**3

  Density of cell =     19.655003 g/cm**3

  Non-primitive cell volume =            33.929432 Angs**3


  Final internal derivatives :

--------------------------------------------------------------------------------
   No.  Atomic          a             b             c           Radius
        Label          (eV)          (eV)          (eV)        (eV/Angs)
--------------------------------------------------------------------------------
      1 Mg    c       0.000000      0.000000      0.000000      0.000000
      2 Mg    c       6.610989      3.069973      0.000000      0.000000
      3 Mg    c       1.766047     -9.005160     -0.000000      0.000000
      4 Mg    c      -2.576606    -24.801971     -0.000000      0.000000
      5 Si    c      -3.032647     -2.157617     11.989040      0.000000
      6 Si    c      -2.538527     -4.959751     14.915269      0.000000
      7 Si    c      -3.032647     -2.157617    -11.989040      0.000000
      8 Si    c      -2.538527     -4.959751    -14.915269      0.000000
      9 O     c       0.000000      0.000000      0.000000      0.000000
     10 O     c       0.000000      0.000000      0.000000      0.000000
     11 O     c       0.000000      0.000000      0.000000      0.000000
     12 O     c       0.000000      0.000000      0.000000      0.000000
     13 O     c       0.000000      0.000000      0.000000      0.000000
     14 O     c       0.000000      0.000000      0.000000      0.000000
     15 O     c       0.000000      0.000000      0.000000      0.000000
     16 O     c       0.000000      0.000000      0.000000      0.000000
     17 O     c       0.000000      0.000000      0.000000      0.000000
     18 O     c       0.000000      0.000000      0.000000      0.000000
     19 O     c       0.000000      0.000000      0.000000      0.000000
     20 O     c       0.000000      0.000000      0.000000      0.000000
     21 O     s       2.770236     13.520694      0.000000      0.000000
     22 O     s      -5.653198    -12.767785     -0.000000      0.000000
     23 O     s       0.666531     13.632515      0.000000      0.000000
     24 O     s      -3.387482    -12.746030     -0.000000      0.000000
     25 O     s       3.844502     -1.557512      3.271714      0.000000
     26 O     s       1.732814      0.554290      0.350244      0.000000
     27 O     s       3.873171     -1.697038     -0.919650      0.000000
     28 O     s       1.804614      0.441980     -2.675071      0.000000
     29 O     s       3.873171     -1.697038      0.919650      0.000000
     30 O     s       1.804614      0.441980      2.675071      0.000000
     31 O     s       3.844502     -1.557512     -3.271714      0.000000
     32 O     s       1.732814      0.554290     -0.350244      0.000000
--------------------------------------------------------------------------------
  Maximum abs         6.610989     24.801971     14.915269      0.000000
--------------------------------------------------------------------------------


  Time to end of optimisation =       0.0495 seconds


  Peak dynamic memory used =       0.59 MB 


  Timing analysis for GULP :

--------------------------------------------------------------------------------
  Task / Subroutine                                          Time (Seconds)
--------------------------------------------------------------------------------
  Calculation of reciprocal space energy and derivatives          0.0111
  Calculation of real space energy and derivatives                0.0137
  Calculation of three-body energy and derivatives                0.0077
  Global summation overhead                                       0.0003
--------------------------------------------------------------------------------
  Total CPU time                                                  0.0497
--------------------------------------------------------------------------------


  Dump file written as gulpopt                                                 


  Job Finished at 20:45.21 29th August     2019                               

